[Molden Format]
[Title]
Written by TeraChem
[Atoms] Angs
Fe   1   16      0.00000   -0.00566    0.00000
C   2   6     -0.00000   -0.01868    1.78256
O   3   8     -0.00000   -0.02986    2.94863
C   4   6     -0.00000   -0.01866   -1.78256
O   5   8     -0.00000   -0.02988   -2.94863
C   6   6      0.00000    1.77003    0.00001
O   7   8     -0.00001    2.93994   -0.00001
C   8   6      1.55244   -0.86945   -0.00000
O   9   8      2.57707   -1.43414    0.00001
C   10   6     -1.55244   -0.86946   -0.00001
O   11   8     -2.57706   -1.43416    0.00001
[GTO]
    1 0
 s    3 1.00
            6.422000            -0.392788
            1.826000             0.771264
            0.713500             0.492023
 s    4 1.00
            6.422000             0.178688
            1.826000            -0.419403
            0.713500            -0.456819
            0.102100             1.103505
 s    1 1.00
            0.036300             1.000000
 p    3 1.00
           19.480000            -0.047028
            2.389000             0.624884
            0.779500             0.472254
 p    1 1.00
            0.074000             1.000000
 p    1 1.00
            0.022000             1.000000
 d    4 1.00
           37.080000             0.032900
           10.100000             0.178742
            3.220000             0.448766
            0.962800             0.587636
 d    1 1.00
            0.226200             1.000000

    2 0
 s    7 1.00
         4233.000000             0.001220
          634.900000             0.009342
          146.100000             0.045452
           42.500000             0.154657
           14.190000             0.358866
            5.148000             0.438632
            1.967000             0.145918
 s    2 1.00
            5.148000            -0.168367
            0.496200             1.060091
 s    1 1.00
            0.153300             1.000000
 p    4 1.00
           18.160000             0.018539
            3.986000             0.115436
            1.143000             0.386188
            0.359400             0.640114
 p    1 1.00
            0.114600             1.000000

    3 0
 s    7 1.00
         7817.000000             0.001176
         1176.000000             0.008968
          273.200000             0.042868
           81.170000             0.143930
           27.180000             0.355630
            9.532000             0.461248
            3.414000             0.140206
 s    2 1.00
            9.532000            -0.154153
            0.939800             1.056915
 s    1 1.00
            0.284600             1.000000
 p    4 1.00
           35.180000             0.019580
            7.904000             0.124200
            2.305000             0.394714
            0.717100             0.627376
 p    1 1.00
            0.213700             1.000000

    4 0
 s    7 1.00
         4233.000000             0.001220
          634.900000             0.009342
          146.100000             0.045452
           42.500000             0.154657
           14.190000             0.358866
            5.148000             0.438632
            1.967000             0.145918
 s    2 1.00
            5.148000            -0.168367
            0.496200             1.060091
 s    1 1.00
            0.153300             1.000000
 p    4 1.00
           18.160000             0.018539
            3.986000             0.115436
            1.143000             0.386188
            0.359400             0.640114
 p    1 1.00
            0.114600             1.000000

    5 0
 s    7 1.00
         7817.000000             0.001176
         1176.000000             0.008968
          273.200000             0.042868
           81.170000             0.143930
           27.180000             0.355630
            9.532000             0.461248
            3.414000             0.140206
 s    2 1.00
            9.532000            -0.154153
            0.939800             1.056915
 s    1 1.00
            0.284600             1.000000
 p    4 1.00
           35.180000             0.019580
            7.904000             0.124200
            2.305000             0.394714
            0.717100             0.627376
 p    1 1.00
            0.213700             1.000000

    6 0
 s    7 1.00
         4233.000000             0.001220
          634.900000             0.009342
          146.100000             0.045452
           42.500000             0.154657
           14.190000             0.358866
            5.148000             0.438632
            1.967000             0.145918
 s    2 1.00
            5.148000            -0.168367
            0.496200             1.060091
 s    1 1.00
            0.153300             1.000000
 p    4 1.00
           18.160000             0.018539
            3.986000             0.115436
            1.143000             0.386188
            0.359400             0.640114
 p    1 1.00
            0.114600             1.000000

    7 0
 s    7 1.00
         7817.000000             0.001176
         1176.000000             0.008968
          273.200000             0.042868
           81.170000             0.143930
           27.180000             0.355630
            9.532000             0.461248
            3.414000             0.140206
 s    2 1.00
            9.532000            -0.154153
            0.939800             1.056915
 s    1 1.00
            0.284600             1.000000
 p    4 1.00
           35.180000             0.019580
            7.904000             0.124200
            2.305000             0.394714
            0.717100             0.627376
 p    1 1.00
            0.213700             1.000000

    8 0
 s    7 1.00
         4233.000000             0.001220
          634.900000             0.009342
          146.100000             0.045452
           42.500000             0.154657
           14.190000             0.358866
            5.148000             0.438632
            1.967000             0.145918
 s    2 1.00
            5.148000            -0.168367
            0.496200             1.060091
 s    1 1.00
            0.153300             1.000000
 p    4 1.00
           18.160000             0.018539
            3.986000             0.115436
            1.143000             0.386188
            0.359400             0.640114
 p    1 1.00
            0.114600             1.000000

    9 0
 s    7 1.00
         7817.000000             0.001176
         1176.000000             0.008968
          273.200000             0.042868
           81.170000             0.143930
           27.180000             0.355630
            9.532000             0.461248
            3.414000             0.140206
 s    2 1.00
            9.532000            -0.154153
            0.939800             1.056915
 s    1 1.00
            0.284600             1.000000
 p    4 1.00
           35.180000             0.019580
            7.904000             0.124200
            2.305000             0.394714
            0.717100             0.627376
 p    1 1.00
            0.213700             1.000000

   10 0
 s    7 1.00
         4233.000000             0.001220
          634.900000             0.009342
          146.100000             0.045452
           42.500000             0.154657
           14.190000             0.358866
            5.148000             0.438632
            1.967000             0.145918
 s    2 1.00
            5.148000            -0.168367
            0.496200             1.060091
 s    1 1.00
            0.153300             1.000000
 p    4 1.00
           18.160000             0.018539
            3.986000             0.115436
            1.143000             0.386188
            0.359400             0.640114
 p    1 1.00
            0.114600             1.000000

   11 0
 s    7 1.00
         7817.000000             0.001176
         1176.000000             0.008968
          273.200000             0.042868
           81.170000             0.143930
           27.180000             0.355630
            9.532000             0.461248
            3.414000             0.140206
 s    2 1.00
            9.532000            -0.154153
            0.939800             1.056915
 s    1 1.00
            0.284600             1.000000
 p    4 1.00
           35.180000             0.019580
            7.904000             0.124200
            2.305000             0.394714
            0.717100             0.627376
 p    1 1.00
            0.213700             1.000000

[MO]
 Ene= 0.0
 Spin= Alpha
 Occup=     2.0000
    1    0.00001
    2   -0.00003
    3   -0.00005
    4    0.00000
    5   -0.00000
    6    0.00504
    7   -0.00000
    8   -0.00000
    9   -0.06890
   10    0.00000
   11    0.00000
   12   -0.01110
   13   -0.00000
   14   -0.00000
   15   -0.00001
   16    0.00000
   17    0.00000
   18    0.00009
   19    0.00003
   20    0.00004
   21   -0.00022
   22    0.00000
   23    0.00000
   24    0.00016
   25    0.08204
   26   -0.17124
   27   -0.02255
   28    0.00000
   29    0.00165
   30   -0.16633
   31   -0.00000
   32   -0.00119
   33    0.06397
   34    0.15122
   35   -0.33097
   36   -0.24638
   37   -0.00000
   38   -0.00145
   39    0.14519
   40    0.00000
   41    0.00036
   42   -0.01033
   43   -0.08168
   44    0.17051
   45    0.02268
   46   -0.00000
   47   -0.00165
   48   -0.16555
   49    0.00000
   50    0.00119
   51    0.06394
   52   -0.15057
   53    0.32953
   54    0.24535
   55    0.00000
   56    0.00145
   57    0.14457
   58   -0.00000
   59   -0.00036
   60   -0.01034
   61    0.00001
   62   -0.00003
   63    0.00001
   64   -0.00000
   65   -0.00001
   66    0.00032
   67   -0.00000
   68    0.00002
   69    0.03013
   70    0.00002
   71   -0.00004
   72   -0.00004
   73   -0.00000
   74    0.00002
   75    0.00054
   76    0.00000
   77    0.00000
   78   -0.00741
   79    0.00002
   80   -0.00005
   81    0.00000
   82   -0.00003
   83    0.00002
   84    0.00032
   85    0.00003
   86   -0.00002
   87    0.02880
   88    0.00004
   89   -0.00008
   90   -0.00007
   91    0.00003
   92   -0.00002
   93    0.00039
   94   -0.00000
   95    0.00000
   96   -0.00697
   97    0.00002
   98   -0.00005
   99    0.00000
  100    0.00003
  101    0.00002
  102    0.00032
  103   -0.00003
  104   -0.00002
  105    0.02880
  106    0.00004
  107   -0.00008
  108   -0.00007
  109   -0.00003
  110   -0.00002
  111    0.00039
  112    0.00000
  113    0.00000
  114   -0.00697
 Ene= 0.0
 Spin= Alpha
 Occup=     2.0000
    1   -0.00311
    2    0.01296
    3    0.02159
    4   -0.00000
    5    0.00008
    6    0.00001
    7    0.00000
    8    0.00071
    9   -0.00015
   10    0.00000
   11   -0.00018
   12   -0.00002
   13    0.00152
   14    0.00134
   15    0.00323
   16   -0.00000
   17    0.00000
   18    0.00000
   19   -0.01661
   20   -0.01743
   21    0.09903
   22   -0.00000
   23   -0.00000
   24   -0.00000
   25   -0.08179
   26    0.16475
   27   -0.03018
   28   -0.00000
   29   -0.00175
   30    0.17868
   31   -0.00000
   32   -0.00002
   33   -0.00734
   34   -0.14951
   35    0.32729
   36    0.23441
   37    0.00000
   38    0.00135
   39   -0.14182
   40    0.00000
   41    0.00011
   42   -0.00265
   43   -0.08215
   44    0.16551
   45   -0.03008
   46   -0.00000
   47   -0.00176
   48   -0.17941
   49   -0.00000
   50   -0.00001
   51    0.00762
   52   -0.15017
   53    0.32874
   54    0.23549
   55    0.00000
   56    0.00137
   57    0.14245
   58    0.00000
   59    0.00011
   60    0.00261
   61   -0.00473
   62    0.01353
   63   -0.00452
   64    0.00000
   65    0.00497
   66    0.00000
   67   -0.00000
   68   -0.01175
   69    0.00007
   70   -0.00772
   71    0.01559
   72    0.01928
   73    0.00000
   74   -0.00774
   75    0.00000
   76    0.00000
   77   -0.00007
   78   -0.00002
   79   -0.00783
   80    0.01903
   81   -0.00034
   82    0.00980
   83   -0.00546
   84    0.00000
   85   -0.01302
   86    0.00702
   87    0.00006
   88   -0.01329
   89    0.02786
   90    0.02799
   91   -0.01152
   92    0.00634
   93    0.00000
   94    0.00072
   95   -0.00034
   96   -0.00002
   97   -0.00782
   98    0.01901
   99   -0.00034
  100   -0.00979
  101   -0.00545
  102    0.00000
  103    0.01301
  104    0.00702
  105    0.00006
  106   -0.01328
  107    0.02783
  108    0.02797
  109    0.01151
  110    0.00634
  111    0.00000
  112   -0.00071
  113   -0.00034
  114   -0.00002
 Ene= 0.0
 Spin= Alpha
 Occup=     2.0000
    1    0.00239
    2    0.00192
    3   -0.00041
    4    0.00002
    5    0.99506
    6   -0.00001
    7   -0.00000
    8    0.00163
    9    0.00000
   10   -0.00000
   11   -0.00127
   12   -0.00000
   13   -0.00246
   14    0.00211
   15    0.00014
   16    0.00000
   17   -0.00000
   18    0.00000
   19    0.00064
   20   -0.00581
   21   -0.00038
   22    0.00000
   23   -0.00000
   24   -0.00000
   25    0.00002
   26   -0.00015
   27   -0.00026
   28    0.00000
   29    0.00318
   30    0.00023
   31    0.00000
   32    0.00196
   33    0.00011
   34   -0.00000
   35   -0.00000
   36   -0.00003
   37   -0.00000
   38    0.00013
   39    0.00001
   40   -0.00000
   41   -0.00161
   42    0.00000
   43    0.00002
   44   -0.00015
   45   -0.00026
   46    0.00000
   47    0.00318
   48   -0.00023
   49    0.00000
   50    0.00196
   51   -0.00011
   52   -0.00000
   53   -0.00000
   54   -0.00003
   55   -0.00000
   56    0.00013
   57   -0.00001
   58   -0.00000
   59   -0.00161
   60   -0.00000
   61   -0.00518
   62    0.01515
   63    0.00252
   64    0.00000
   65   -0.01672
   66   -0.00000
   67    0.00000
   68    0.00085
   69   -0.00000
   70    0.00009
   71    0.00084
   72    0.00114
   73    0.00000
   74   -0.00035
   75    0.00000
   76   -0.00000
   77   -0.00058
   78    0.00000
   79    0.00265
   80   -0.00744
   81    0.00012
   82    0.00797
   83   -0.00165
   84   -0.00000
   85   -0.00043
   86    0.00149
   87   -0.00000
   88   -0.00006
   89   -0.00025
   90   -0.00064
   91    0.00001
   92    0.00005
   93   -0.00000
   94    0.00006
   95   -0.00117
   96    0.00000
   97    0.00265
   98   -0.00744
   99    0.00012
  100   -0.00797
  101   -0.00165
  102   -0.00000
  103    0.00043
  104    0.00149
  105   -0.00000
  106   -0.00006
  107   -0.00025
  108   -0.00064
  109   -0.00001
  110    0.00005
  111   -0.00000
  112   -0.00006
  113   -0.00117
  114    0.00000
 Ene= 0.0
 Spin= Alpha
 Occup=     2.0000
    1   -0.00000
    2   -0.00000
    3    0.00000
    4   -0.99495
    5    0.00002
    6    0.00000
    7   -0.00087
    8    0.00000
    9    0.00000
   10    0.00118
   11   -0.00000
   12   -0.00000
   13   -0.00000
   14    0.00000
   15   -0.00000
   16    0.00175
   17    0.00000
   18   -0.00000
   19    0.00000
   20    0.00000
   21    0.00000
   22   -0.00426
   23   -0.00000
   24   -0.00000
   25   -0.00000
   26    0.00000
   27    0.00000
   28   -0.00319
   29    0.00000
   30   -0.00000
   31   -0.00211
   32    0.00000
   33   -0.00000
   34    0.00000
   35   -0.00000
   36    0.00000
   37   -0.00014
   38    0.00000
   39   -0.00000
   40    0.00164
   41   -0.00000
   42   -0.00000
   43    0.00000
   44   -0.00000
   45    0.00000
   46   -0.00319
   47    0.00000
   48   -0.00000
   49   -0.00211
   50    0.00000
   51    0.00000
   52   -0.00000
   53    0.00000
   54   -0.00000
   55   -0.00014
   56    0.00000
   57    0.00000
   58    0.00164
   59   -0.00000
   60   -0.00000
   61   -0.00000
   62    0.00000
   63   -0.00000
   64   -0.00273
   65   -0.00000
   66    0.00000
   67   -0.00121
   68    0.00000
   69    0.00000
   70    0.00000
   71    0.00000
   72    0.00000
   73   -0.00004
   74    0.00000
   75    0.00000
   76    0.00100
   77   -0.00000
   78   -0.00000
   79    0.00459
   80   -0.01326
   81   -0.00187
   82    0.01201
   83   -0.00807
   84   -0.00000
   85   -0.00133
   86   -0.00002
   87    0.00000
   88   -0.00009
   89   -0.00067
   90   -0.00092
   91    0.00015
   92   -0.00012
   93   -0.00000
   94    0.00089
   95    0.00023
   96    0.00000
   97   -0.00459
   98    0.01326
   99    0.00187
  100    0.01201
  101    0.00807
  102    0.00000
  103   -0.00133
  104    0.00002
  105    0.00000
  106    0.00009
  107    0.00067
  108    0.00092
  109    0.00015
  110    0.00012
  111    0.00000
  112    0.00089
  113   -0.00023
  114   -0.00000
 Ene= 0.0
 Spin= Alpha
 Occup=     2.0000
    1   -0.00000
    2    0.00000
    3   -0.00000
    4   -0.00000
    5   -0.00001
    6   -0.99411
    7   -0.00000
    8   -0.00000
    9   -0.00424
   10    0.00000
   11   -0.00000
   12    0.00126
   13    0.00000
   14   -0.00000
   15    0.00000
   16    0.00000
   17    0.00000
   18    0.00123
   19   -0.00000
   20    0.00000
   21   -0.00000
   22   -0.00000
   23   -0.00000
   24   -0.00044
   25    0.00516
   26   -0.01425
   27    0.00140
   28   -0.00000
   29   -0.00010
   30    0.01502
   31    0.00000
   32    0.00016
   33   -0.00014
   34   -0.00009
   35   -0.00026
   36   -0.00265
   37    0.00000
   38    0.00001
   39    0.00017
   40   -0.00000
   41   -0.00010
   42    0.00094
   43   -0.00516
   44    0.01425
   45   -0.00140
   46    0.00000
   47    0.00010
   48    0.01502
   49   -0.00000
   50   -0.00016
   51   -0.00014
   52    0.00009
   53    0.00026
   54    0.00265
   55   -0.00000
   56   -0.00001
   57    0.00017
   58    0.00000
   59    0.00010
   60    0.00094
   61    0.00000
   62   -0.00000
   63    0.00000
   64   -0.00000
   65    0.00000
   66   -0.00300
   67   -0.00000
   68    0.00000
   69   -0.00180
   70    0.00000
   71    0.00000
   72   -0.00000
   73    0.00000
   74    0.00000
   75   -0.00016
   76    0.00000
   77    0.00000
   78    0.00164
   79   -0.00000
   80    0.00000
   81   -0.00000
   82   -0.00000
   83    0.00000
   84   -0.00308
   85   -0.00000
   86    0.00000
   87   -0.00181
   88   -0.00000
   89   -0.00000
   90    0.00000
   91   -0.00000
   92    0.00000
   93   -0.00016
   94   -0.00000
   95    0.00000
   96    0.00168
   97   -0.00000
   98    0.00000
   99   -0.00000
  100    0.00000
  101    0.00000
  102   -0.00308
  103    0.00000
  104    0.00000
  105   -0.00181
  106    0.00000
  107   -0.00000
  108    0.00000
  109    0.00000
  110    0.00000
  111   -0.00016
  112    0.00000
  113    0.00000
  114    0.00168
 Ene= 0.0
 Spin= Alpha
 Occup=     2.0000
    1   -0.98657
    2    0.04180
    3   -0.00471
    4    0.00000
    5    0.00153
    6    0.00000
    7    0.00000
    8    0.00088
    9   -0.00000
   10   -0.00000
   11   -0.00007
   12    0.00000
   13    0.00108
   14    0.00152
   15    0.00126
   16    0.00000
   17   -0.00000
   18   -0.00000
   19   -0.02340
   20   -0.02327
   21   -0.02508
   22   -0.00000
   23    0.00000
   24    0.00000
   25    0.00126
   26   -0.00150
   27    0.00208
   28   -0.00000
   29   -0.00002
   30    0.00227
   31    0.00000
   32   -0.00012
   33   -0.00564
   34   -0.00003
   35   -0.00050
   36    0.00173
   37    0.00000
   38   -0.00000
   39   -0.00020
   40   -0.00000
   41    0.00003
   42    0.00194
   43    0.00126
   44   -0.00150
   45    0.00208
   46   -0.00000
   47   -0.00002
   48   -0.00227
   49    0.00000
   50   -0.00012
   51    0.00564
   52   -0.00003
   53   -0.00050
   54    0.00173
   55   -0.00000
   56   -0.00000
   57    0.00020
   58   -0.00000
   59    0.00003
   60   -0.00194
   61    0.00130
   62   -0.00098
   63   -0.00118
   64    0.00000
   65    0.00245
   66   -0.00000
   67    0.00000
   68   -0.00398
   69   -0.00000
   70   -0.00003
   71   -0.00059
   72    0.00185
   73   -0.00000
   74   -0.00008
   75   -0.00000
   76    0.00000
   77    0.00128
   78    0.00000
   79    0.00130
   80   -0.00122
   81   -0.00019
   82    0.00217
   83   -0.00116
   84   -0.00000
   85   -0.00370
   86    0.00185
   87   -0.00000
   88   -0.00003
   89   -0.00056
   90    0.00175
   91   -0.00010
   92    0.00005
   93    0.00000
   94    0.00122
   95   -0.00063
   96   -0.00000
   97    0.00130
   98   -0.00122
   99   -0.00019
  100   -0.00217
  101   -0.00116
  102   -0.00000
  103    0.00370
  104    0.00185
  105    0.00000
  106   -0.00003
  107   -0.00056
  108    0.00175
  109    0.00010
  110    0.00005
  111    0.00000
  112   -0.00122
  113   -0.00063
  114   -0.00000
 Ene= 0.0
 Spin= Alpha
 Occup=     2.0000
    1    0.00005
    2    0.00057
    3   -0.00003
    4   -0.00000
    5    0.00007
    6   -0.00000
    7   -0.00000
    8    0.00177
    9   -0.00000
   10    0.00000
   11   -0.00003
   12    0.00000
   13    0.00015
   14    0.00025
   15    0.00015
   16   -0.00000
   17    0.00000
   18   -0.00000
   19    0.00004
   20    0.00120
   21   -0.00040
   22    0.00000
   23    0.00000
   24    0.00000
   25   -0.00044
   26    0.00000
   27    0.00028
   28   -0.00000
   29   -0.00004
   30   -0.00006
   31    0.00000
   32   -0.00047
   33   -0.00019
   34    0.00000
   35    0.00000
   36    0.00002
   37   -0.00000
   38   -0.00001
   39   -0.00001
   40   -0.00000
   41    0.00011
   42    0.00007
   43   -0.00044
   44    0.00000
   45    0.00028
   46   -0.00000
   47   -0.00004
   48    0.00006
   49    0.00000
   50   -0.00047
   51    0.00019
   52    0.00000
   53    0.00000
   54    0.00002
   55   -0.00000
   56   -0.00001
   57    0.00001
   58   -0.00000
   59    0.00011
   60   -0.00007
   61    0.99907
   62    0.00373
   63   -0.00082
   64   -0.00000
   65    0.00257
   66   -0.00000
   67    0.00000
   68   -0.00087
   69    0.00000
   70   -0.00052
   71    0.00083
   72   -0.00056
   73    0.00000
   74   -0.00097
   75    0.00000
   76   -0.00000
   77    0.00102
   78   -0.00000
   79   -0.00034
   80    0.00014
   81   -0.00036
   82    0.00005
   83    0.00010
   84    0.00000
   85    0.00047
   86   -0.00072
   87    0.00000
   88    0.00000
   89    0.00005
   90   -0.00027
   91    0.00003
   92   -0.00004
   93    0.00000
   94   -0.00010
   95    0.00015
   96    0.00000
   97   -0.00034
   98    0.00014
   99   -0.00036
  100   -0.00005
  101    0.00010
  102    0.00000
  103   -0.00047
  104   -0.00072
  105    0.00000
  106    0.00000
  107    0.00005
  108   -0.00027
  109   -0.00003
  110   -0.00004
  111    0.00000
  112    0.00010
  113    0.00015
  114    0.00000
 Ene= 0.0
 Spin= Alpha
 Occup=     2.0000
    1   -0.00004
    2   -0.00052
    3    0.00005
    4    0.00007
    5    0.00004
    6    0.00000
    7    0.00177
    8    0.00066
    9   -0.00000
   10   -0.00003
   11   -0.00001
   12    0.00000
   13   -0.00021
   14   -0.00017
   15   -0.00015
   16   -0.00007
   17    0.00000
   18    0.00000
   19   -0.00088
   20   -0.00031
   21    0.00036
   22   -0.00069
   23   -0.00000
   24   -0.00000
   25    0.00077
   26    0.00001
   27   -0.00029
   28   -0.00004
   29   -0.00002
   30    0.00005
   31   -0.00047
   32   -0.00019
   33    0.00018
   34   -0.00000
   35   -0.00000
   36   -0.00001
   37   -0.00001
   38   -0.00001
   39    0.00001
   40    0.00011
   41    0.00005
   42   -0.00007
   43    0.00076
   44    0.00001
   45   -0.00029
   46   -0.00004
   47   -0.00002
   48   -0.00005
   49   -0.00047
   50   -0.00019
   51   -0.00018
   52   -0.00000
   53   -0.00000
   54   -0.00001
   55   -0.00001
   56   -0.00001
   57   -0.00001
   58    0.00011
   59    0.00005
   60    0.00007
   61   -0.00030
   62   -0.00014
   63    0.00040
   64    0.00013
   65   -0.00000
   66   -0.00000
   67   -0.00045
   68   -0.00070
   69   -0.00000
   70   -0.00000
   71   -0.00005
   72    0.00024
   73   -0.00002
   74   -0.00004
   75   -0.00000
   76    0.00009
   77    0.00015
   78    0.00000
   79    0.12025
   80    0.00032
   81    0.00020
   82    0.00034
   83   -0.00005
   84    0.00000
   85   -0.00099
   86    0.00016
   87    0.00000
   88   -0.00007
   89    0.00003
   90    0.00026
   91   -0.00015
   92    0.00007
   93   -0.00000
   94    0.00028
   95   -0.00009
   96   -0.00000
   97   -0.99181
   98   -0.00371
   99    0.00079
  100    0.00239
  101    0.00126
  102   -0.00000
  103   -0.00086
  104   -0.00039
  105   -0.00000
  106    0.00051
  107   -0.00083
  108    0.00060
  109   -0.00083
  110   -0.00045
  111    0.00000
  112    0.00095
  113    0.00051
  114   -0.00000
 Ene= 0.0
 Spin= Alpha
 Occup=     2.0000
    1    0.00005
    2    0.00066
    3   -0.00007
    4    0.00006
    5   -0.00004
    6   -0.00000
    7    0.00139
    8   -0.00085
    9    0.00000
   10   -0.00002
   11    0.00002
   12   -0.00000
   13    0.00027
   14    0.00021
   15    0.00019
   16   -0.00006
   17    0.00000
   18   -0.00000
   19    0.00112
   20    0.00039
   21   -0.00045
   22   -0.00054
   23   -0.00000
   24    0.00000
   25   -0.00098
   26   -0.00001
   27    0.00037
   28   -0.00003
   29    0.00002
   30   -0.00006
   31   -0.00037
   32    0.00024
   33   -0.00024
   34    0.00000
   35    0.00000
   36    0.00002
   37   -0.00001
   38    0.00001
   39   -0.00002
   40    0.00009
   41   -0.00006
   42    0.00008
   43   -0.00098
   44   -0.00001
   45    0.00037
   46   -0.00003
   47    0.00002
   48    0.00006
   49   -0.00037
   50    0.00024
   51    0.00024
   52    0.00000
   53    0.00000
   54    0.00002
   55   -0.00001
   56    0.00001
   57    0.00002
   58    0.00009
   59   -0.00006
   60   -0.00008
   61    0.00039
   62    0.00018
   63   -0.00051
   64    0.00010
   65    0.00000
   66    0.00000
   67   -0.00036
   68    0.00089
   69    0.00000
   70    0.00000
   71    0.00006
   72   -0.00031
   73   -0.00001
   74    0.00005
   75    0.00000
   76    0.00007
   77   -0.00019
   78   -0.00000
   79    0.99181
   80    0.00374
   81   -0.00086
   82    0.00238
   83   -0.00129
   84   -0.00000
   85   -0.00064
   86    0.00036
   87    0.00000
   88   -0.00051
   89    0.00084
   90   -0.00068
   91   -0.00082
   92    0.00045
   93   -0.00000
   94    0.00091
   95   -0.00050
   96    0.00000
   97    0.12026
   98    0.00058
   99   -0.00040
  100   -0.00024
  101   -0.00026
  102   -0.00000
  103   -0.00081
  104   -0.00007
  105   -0.00000
  106   -0.00006
  107    0.00017
  108   -0.00041
  109    0.00005
  110    0.00004
  111   -0.00000
  112    0.00006
  113   -0.00003
  114    0.00000
 Ene= 0.0
 Spin= Alpha
 Occup=     2.0000
    1   -0.00002
    2   -0.00018
    3   -0.00012
    4   -0.00000
    5   -0.00000
    6   -0.00008
    7    0.00000
    8   -0.00000
    9   -0.00165
   10    0.00000
   11   -0.00000
   12   -0.00009
   13   -0.00008
   14   -0.00008
   15   -0.00006
   16    0.00000
   17    0.00000
   18    0.00000
   19    0.00014
   20    0.00013
   21   -0.00115
   22    0.00000
   23    0.00000
   24    0.00000
   25   -0.87903
   26   -0.00321
   27    0.00032
   28    0.00000
   29    0.00003
   30   -0.00248
   31   -0.00000
   32   -0.00002
   33    0.00084
   34    0.00047
   35   -0.00080
   36    0.00076
   37   -0.00000
   38   -0.00001
   39    0.00084
   40    0.00000
   41    0.00001
   42   -0.00100
   43    0.47480
   44    0.00184
   45    0.00097
   46   -0.00000
   47   -0.00001
   48   -0.00103
   49    0.00000
   50    0.00003
   51    0.00133
   52   -0.00025
   53    0.00047
   54   -0.00034
   55    0.00000
   56    0.00001
   57    0.00052
   58   -0.00000
   59   -0.00001
   60   -0.00081
   61   -0.00018
   62   -0.00002
   63   -0.00006
   64    0.00000
   65    0.00003
   66    0.00002
   67   -0.00000
   68    0.00011
   69    0.00076
   70    0.00000
   71    0.00001
   72   -0.00005
   73   -0.00000
   74    0.00000
   75    0.00003
   76   -0.00000
   77   -0.00001
   78   -0.00023
   79   -0.00036
   80   -0.00002
   81   -0.00008
   82    0.00002
   83   -0.00001
   84    0.00002
   85    0.00011
   86   -0.00006
   87    0.00073
   88    0.00000
   89    0.00001
   90   -0.00005
   91    0.00000
   92   -0.00000
   93    0.00003
   94   -0.00001
   95    0.00001
   96   -0.00022
   97   -0.00036
   98   -0.00002
   99   -0.00008
  100   -0.00002
  101   -0.00001
  102    0.00002
  103   -0.00011
  104   -0.00006
  105    0.00073
  106    0.00000
  107    0.00001
  108   -0.00005
  109   -0.00000
  110   -0.00000
  111    0.00003
  112    0.00001
  113    0.00001
  114   -0.00022
 Ene= 0.0
 Spin= Alpha
 Occup=     2.0000
    1    0.00006
    2    0.00059
    3    0.00039
    4    0.00000
    5    0.00000
    6   -0.00002
    7   -0.00000
    8    0.00001
    9   -0.00049
   10    0.00000
   11    0.00000
   12   -0.00003
   13    0.00028
   14    0.00028
   15    0.00019
   16    0.00000
   17    0.00000
   18    0.00000
   19   -0.00047
   20   -0.00045
   21    0.00387
   22   -0.00000
   23   -0.00000
   24    0.00000
   25    0.47481
   26    0.00154
   27   -0.00225
   28   -0.00000
   29   -0.00002
   30    0.00191
   31   -0.00000
   32   -0.00002
   33    0.00114
   34   -0.00025
   35    0.00038
   36   -0.00054
   37   -0.00000
   38    0.00000
   39   -0.00034
   40    0.00000
   41    0.00001
   42    0.00005
   43    0.87903
   44    0.00304
   45   -0.00206
   46   -0.00000
   47   -0.00003
   48   -0.00295
   49    0.00000
   50   -0.00001
   51   -0.00050
   52   -0.00046
   53    0.00076
   54   -0.00087
   55    0.00000
   56    0.00001
   57    0.00074
   58   -0.00000
   59   -0.00000
   60   -0.00059
   61    0.00060
   62    0.00006
   63    0.00019
   64   -0.00000
   65   -0.00009
   66    0.00001
   67   -0.00000
   68   -0.00037
   69    0.00023
   70   -0.00000
   71   -0.00003
   72    0.00017
   73    0.00000
   74   -0.00002
   75    0.00001
   76    0.00000
   77    0.00004
   78   -0.00007
   79    0.00120
   80    0.00005
   81    0.00026
   82   -0.00008
   83    0.00004
   84    0.00001
   85   -0.00035
   86    0.00019
   87    0.00022
   88   -0.00000
   89   -0.00003
   90    0.00017
   91   -0.00002
   92    0.00001
   93    0.00001
   94    0.00005
   95   -0.00003
   96   -0.00007
   97    0.00119
   98    0.00005